0.5 0.12146666666666667 0.0017009801096230768
0.6 0.6544 0.0036510272527057346
0.7 2.2548666666666666 0.01050825072661167
0.8 5.874366666666666 0.025426823107367026
0.9 14.0843 0.1249043233839407
