0.5 0.1391 0.0008185352771872549
0.6 0.9522333333333334 0.004306197084822473
0.7 2.895233333333333 0.006836909633257763
0.8 6.598033333333333 0.027630478340653884
0.9 14.465033333333333 0.18002200791384793
