0.5 0.14373333333333332 0.001823001188516705
0.6 0.9656666666666667 0.0015143755588800968
0.7 3.8831666666666664 0.006450064599159715
0.8 9.840933333333334 0.026391728502189998
0.9 21.6253 0.12028395570482414
