0.5 0.13963333333333333 0.0010408329997330672
0.6 0.9891333333333333 0.0053078558131635055
0.7 4.172 0.006735725647619459
0.8 11.449533333333333 0.032414862846128684
0.9 26.119866666666667 0.04130488268151166
