0.5 0.005849999999999999 7.071067811865493e-05
0.6 0.028 0.00014142135623730864
0.7 0.6083000000000001 0.00268700576850882
0.8 2.9096 0.015414927829866922
0.9 7.0992 0.007353910524339912
