0.5 0.0057 0.0
0.6 0.0263 0.00014142135623730864
0.7 0.72865 0.004737615433949896
0.8 2.4901999999999997 0.0015556349186102332
0.9 5.6988 0.008343860018001284
