0.5 0.0061 0.0
0.6 0.0274 0.0
0.7 0.6809000000000001 0.00042426406871196026
0.8 3.12655 0.00883883476483197
0.9 7.72905 0.05041671349860141
