0.5 0.0059 0.0
0.6 0.02565 7.071067811865432e-05
0.7 0.8265 0.0007071067811865481
0.8 2.84155 0.007424621202458717
0.9 6.8214500000000005 0.02778929650063124
