0.5 0.0054 0.0
0.6 0.0235 0.0
0.7 0.5075999999999999 0.012727922061357828
0.8 2.78105 0.001909188309203625
0.9 6.82315 0.2843276367151113
