0.5 0.14033333333333334 0.0001527525231652051
0.6 0.953 0.007692203845452876
0.7 3.9453 0.022847538160598497
0.8 10.270966666666666 0.016696207154122025
0.9 23.90576666666667 0.2374345453663665
