0.5 0.13916666666666666 0.0004509249752822952
0.6 0.9430000000000001 0.010836512354074066
0.7 3.9636 0.024043918149918877
0.8 10.237133333333334 0.049179907821521165
0.9 24.366866666666667 0.22692334241618428
