0.5 0.14229999999999998 0.0012165525060596467
0.6 0.9566 0.002227105745131983
0.7 3.9162 0.032700611615075405
0.8 10.077933333333332 0.05816720152571675
0.9 22.642766666666667 0.14865403907507255
