0.5 0.1428 0.000793725393319379
0.6 0.9725333333333334 0.0031005375877956112
0.7 3.8956333333333335 0.006473278406907446
0.8 9.871933333333333 0.07464049392476747
0.9 21.463366666666666 0.10861235350241337
