0.5 0.14316666666666666 0.001386842937514316
0.6 0.9749 0.0027221315177632702
0.7 3.8845 0.00941700589359473
0.8 9.883866666666666 0.06511407937868294
0.9 21.5426 0.016836864316135965
