0.5 0.17486666666666667 0.0007094598884597504
0.6 1.2993333333333332 0.0069959512100452375
0.7 5.184466666666666 0.012223065627465753
0.8 13.7813 0.03577722739397203
0.9 30.726133333333333 0.09955562934025025
