0.5 0.14293333333333333 0.001266227994214846
0.6 0.9686666666666667 0.011771717518413917
0.7 3.2266 0.001552417469625946
0.8 7.635666666666666 0.07713030100637068
0.9 16.993933333333334 0.05769682255838175
