0.5 0.17466666666666666 0.0008386497083606119
0.6 1.3036666666666668 0.0030827476921300775
0.7 5.179333333333333 0.009636562319277998
0.8 13.734933333333334 0.017307898004475474
0.9 30.77306666666667 0.06820281030378002
