0.5 0.1434 0.001799999999999996
0.6 0.9764666666666667 0.0019295940851207967
0.7 3.8818333333333332 0.006622939931279234
0.8 9.8181 0.02917413237784494
0.9 21.599533333333333 0.09256891126794957
