0.5 0.15543333333333334 0.0007023769168568417
0.6 1.0778 0.010948972554536812
0.7 4.335266666666667 0.018528176740665633
0.8 11.3405 0.005188448708429132
0.9 25.462433333333333 0.05695975187211892
