0.5 0.17503333333333332 0.0008962886439832562
0.6 1.3030333333333333 0.007767453465154097
0.7 5.1793 0.010394229168148804
0.8 13.7688 0.019748670841350572
0.9 30.754033333333332 0.08785250897574441
