0.5 0.16196666666666668 0.0017785762095938785
0.6 1.1745333333333332 0.001184623709594455
0.7 4.644633333333333 0.004645786621588918
0.8 11.900966666666667 0.04473257575116065
0.9 24.825133333333333 0.031818443288968754
