0.5 0.14426666666666665 0.0014189197769195307
0.6 0.9740333333333333 0.004875790534193733
0.7 3.896533333333333 0.006646302230062504
0.8 9.906666666666666 0.04351658687596404
0.9 22.131533333333334 0.14101788302670615
