0.5 0.14233333333333334 5.773502691895622e-05
0.6 0.9773333333333334 0.0027646579052992087
0.7 4.1681333333333335 0.0357011671144421
0.8 11.4122 0.02705679212323615
0.9 26.200033333333334 0.054596733724037255
