0.5 0.14433333333333334 0.00137961347243832
0.6 0.9738333333333333 0.003647373484212072
0.7 3.891433333333333 0.016385766180845168
0.8 9.878566666666666 0.0043981056528159855
0.9 21.572733333333332 0.12864774904106735
