0.5 0.1426 0.0006999999999999963
0.6 0.9712666666666666 0.0024110855093366973
0.7 3.8860333333333332 0.01364563422246615
0.8 9.866066666666667 0.006501025560119605
0.9 21.517133333333334 0.09209019129816937
