0.5 0.17486666666666667 0.000986576572463246
0.6 1.2936333333333334 0.0047035447625522605
0.7 5.188866666666667 0.005559076661940608
0.8 13.788066666666666 0.052111547024947934
0.9 30.68113333333333 0.06259275783453974
